<?xml version="1.0" encoding="UTF-8"?>

<!-- generated on Wed 12 Oct 2016 11:20:04 PM BRT by SUMO gui Version 0.26.0
<?xml version="1.0" encoding="UTF-8"?>

<configuration xmlns:xsi="http://www.w3.org/2001/XMLSchema-instance" xsi:noNamespaceSchemaLocation="http://sumo.dlr.de/xsd/sumo-gui.exeConfiguration.xsd">

    <input>
        <net-file value="data/cross.net.xml"/>
        <route-files value="data/cross.rou.xml"/>
        <additional-files value="data/cross.det.xml"/>
    </input>

    <output>
        <tripinfo-output value="tripinfo.xml"/>
    </output>

    <time>
        <begin value="0"/>
    </time>

    <report>
        <verbose value="true"/>
    </report>

    <traci_server>
        <remote-port value="8873"/>
    </traci_server>

    <gui_only>
        <gui-settings-file value="data/cross.settings.xml"/>
    </gui_only>

</configuration>
-->

<tripinfos xmlns:xsi="http://www.w3.org/2001/XMLSchema-instance" xsi:noNamespaceSchemaLocation="http://sumo.dlr.de/xsd/tripinfo_file.xsd">
    <tripinfo id="p3to2_3" depart="1.00" departLane="3to0_0" departPos="5.10" departSpeed="0.00" departDelay="0.00" arrival="10.00" arrivalLane="0to2_0" arrivalPos="41.95" arrivalSpeed="13.72" duration="9.00" routeLength="85.22" waitSteps="0" timeLoss="2.07" rerouteNo="0" devices="tripinfo_p3to2_3" vType="CarA" vaporized=""/>
    <tripinfo id="p3to2_8" depart="5.00" departLane="3to0_1" departPos="5.10" departSpeed="0.00" departDelay="0.00" arrival="14.00" arrivalLane="0to2_0" arrivalPos="41.95" arrivalSpeed="13.63" duration="9.00" routeLength="85.22" waitSteps="0" timeLoss="2.11" rerouteNo="0" devices="tripinfo_p3to2_8" vType="CarA" vaporized=""/>
    <tripinfo id="p4to3_1" depart="0.00" departLane="4to0_0" departPos="7.60" departSpeed="0.00" departDelay="0.00" arrival="18.00" arrivalLane="0to3_1" arrivalPos="41.95" arrivalSpeed="9.90" duration="18.00" routeLength="92.84" waitSteps="0" timeLoss="10.82" rerouteNo="0" devices="tripinfo_p4to3_1" vType="CarD" vaporized=""/>
    <tripinfo id="p3to2_13" depart="12.00" departLane="3to0_0" departPos="5.10" departSpeed="0.00" departDelay="0.00" arrival="21.00" arrivalLane="0to2_0" arrivalPos="41.95" arrivalSpeed="13.56" duration="9.00" routeLength="85.22" waitSteps="0" timeLoss="2.18" rerouteNo="0" devices="tripinfo_p3to2_13" vType="CarA" vaporized=""/>
    <tripinfo id="p3to2_14" depart="15.00" departLane="3to0_1" departPos="5.10" departSpeed="0.00" departDelay="0.00" arrival="24.00" arrivalLane="0to2_0" arrivalPos="41.95" arrivalSpeed="13.48" duration="9.00" routeLength="85.22" waitSteps="0" timeLoss="2.11" rerouteNo="0" devices="tripinfo_p3to2_14" vType="CarA" vaporized=""/>
    <tripinfo id="p4to1_12" depart="11.00" departLane="4to0_1" departPos="5.10" departSpeed="0.00" departDelay="0.00" arrival="26.00" arrivalLane="0to1_0" arrivalPos="41.95" arrivalSpeed="11.34" duration="15.00" routeLength="85.22" waitSteps="0" timeLoss="8.22" rerouteNo="0" devices="tripinfo_p4to1_12" vType="CarC" vaporized=""/>
    <tripinfo id="p4to1_15" depart="15.00" departLane="4to0_1" departPos="5.10" departSpeed="0.00" departDelay="0.00" arrival="30.00" arrivalLane="0to1_0" arrivalPos="41.95" arrivalSpeed="10.71" duration="15.00" routeLength="85.22" waitSteps="0" timeLoss="8.63" rerouteNo="0" devices="tripinfo_p4to1_15" vType="CarC" vaporized=""/>
    <tripinfo id="p3to4_20" depart="20.00" departLane="3to0_1" departPos="7.60" departSpeed="0.00" departDelay="0.00" arrival="31.00" arrivalLane="0to4_0" arrivalPos="41.95" arrivalSpeed="13.11" duration="11.00" routeLength="92.84" waitSteps="0" timeLoss="4.24" rerouteNo="0" devices="tripinfo_p3to4_20" vType="CarB" vaporized=""/>
    <tripinfo id="p3to4_23" depart="24.00" departLane="3to0_0" departPos="7.60" departSpeed="0.00" departDelay="0.00" arrival="35.00" arrivalLane="0to4_1" arrivalPos="41.95" arrivalSpeed="13.21" duration="11.00" routeLength="92.84" waitSteps="0" timeLoss="3.91" rerouteNo="0" devices="tripinfo_p3to4_23" vType="CarB" vaporized=""/>
    <tripinfo id="p4to1_17" depart="16.00" departLane="4to0_0" departPos="5.10" departSpeed="0.00" departDelay="0.00" arrival="35.00" arrivalLane="0to1_0" arrivalPos="41.95" arrivalSpeed="10.58" duration="19.00" routeLength="85.22" waitSteps="2" timeLoss="12.61" rerouteNo="0" devices="tripinfo_p4to1_17" vType="CarC" vaporized=""/>
    <tripinfo id="p4to3_22" depart="22.00" departLane="4to0_1" departPos="7.60" departSpeed="0.00" departDelay="0.00" arrival="39.00" arrivalLane="0to3_0" arrivalPos="41.95" arrivalSpeed="11.02" duration="17.00" routeLength="92.84" waitSteps="0" timeLoss="9.81" rerouteNo="0" devices="tripinfo_p4to3_22" vType="CarD" vaporized=""/>
    <tripinfo id="p3to2_27" depart="31.00" departLane="3to0_0" departPos="5.10" departSpeed="0.00" departDelay="0.00" arrival="40.00" arrivalLane="0to2_0" arrivalPos="41.95" arrivalSpeed="13.83" duration="9.00" routeLength="85.22" waitSteps="0" timeLoss="2.29" rerouteNo="0" devices="tripinfo_p3to2_27" vType="CarA" vaporized=""/>
    <tripinfo id="p4to3_24" depart="25.00" departLane="4to0_0" departPos="7.60" departSpeed="0.00" departDelay="0.00" arrival="42.00" arrivalLane="0to3_1" arrivalPos="41.95" arrivalSpeed="10.69" duration="17.00" routeLength="92.84" waitSteps="0" timeLoss="9.97" rerouteNo="0" devices="tripinfo_p4to3_24" vType="CarD" vaporized=""/>
    <tripinfo id="p3to4_29" depart="33.00" departLane="3to0_1" departPos="7.60" departSpeed="0.00" departDelay="0.00" arrival="43.00" arrivalLane="0to4_0" arrivalPos="41.95" arrivalSpeed="13.63" duration="10.00" routeLength="92.84" waitSteps="0" timeLoss="3.34" rerouteNo="0" devices="tripinfo_p3to4_29" vType="CarB" vaporized=""/>
    <tripinfo id="p4to1_26" depart="28.00" departLane="4to0_1" departPos="5.10" departSpeed="0.00" departDelay="0.00" arrival="45.00" arrivalLane="0to1_0" arrivalPos="41.95" arrivalSpeed="10.47" duration="17.00" routeLength="85.22" waitSteps="0" timeLoss="10.55" rerouteNo="0" devices="tripinfo_p4to1_26" vType="CarC" vaporized=""/>
    <tripinfo id="p3to2_34" depart="40.00" departLane="3to0_0" departPos="5.10" departSpeed="0.00" departDelay="0.00" arrival="49.00" arrivalLane="0to2_0" arrivalPos="41.95" arrivalSpeed="13.72" duration="9.00" routeLength="85.22" waitSteps="0" timeLoss="2.07" rerouteNo="0" devices="tripinfo_p3to2_34" vType="CarA" vaporized=""/>
    <tripinfo id="p4to3_30" depart="35.00" departLane="4to0_1" departPos="7.60" departSpeed="0.00" departDelay="0.00" arrival="52.00" arrivalLane="0to3_0" arrivalPos="41.95" arrivalSpeed="10.26" duration="17.00" routeLength="92.84" waitSteps="0" timeLoss="10.09" rerouteNo="0" devices="tripinfo_p4to3_30" vType="CarD" vaporized=""/>
    <tripinfo id="p1to2_10" depart="11.00" departLane="1to0_1" departPos="5.10" departSpeed="0.00" departDelay="0.00" arrival="56.00" arrivalLane="0to2_1" arrivalPos="41.95" arrivalSpeed="13.56" duration="45.00" routeLength="94.90" waitSteps="31" timeLoss="37.40" rerouteNo="0" devices="tripinfo_p1to2_10" vType="CarA" vaporized=""/>
    <tripinfo id="p1to3_0" depart="0.00" departLane="1to0_0" departPos="7.60" departSpeed="0.00" departDelay="0.00" arrival="57.00" arrivalLane="0to3_0" arrivalPos="41.95" arrivalSpeed="13.16" duration="57.00" routeLength="82.72" waitSteps="41" timeLoss="50.21" rerouteNo="0" devices="tripinfo_p1to3_0" vType="CarB" vaporized=""/>
    <tripinfo id="p2to1_5" depart="3.00" departLane="2to0_1" departPos="5.10" departSpeed="0.00" departDelay="0.00" arrival="61.00" arrivalLane="0to1_0" arrivalPos="41.95" arrivalSpeed="10.04" duration="58.00" routeLength="94.90" waitSteps="33" timeLoss="50.78" rerouteNo="0" devices="tripinfo_p2to1_5" vType="CarC" vaporized=""/>
    <tripinfo id="p2to4_4" depart="2.00" departLane="2to0_0" departPos="7.60" departSpeed="0.00" departDelay="0.00" arrival="61.00" arrivalLane="0to4_0" arrivalPos="41.95" arrivalSpeed="8.66" duration="59.00" routeLength="82.72" waitSteps="36" timeLoss="52.40" rerouteNo="0" devices="tripinfo_p2to4_4" vType="CarD" vaporized=""/>
    <tripinfo id="p4to3_37" depart="46.00" departLane="4to0_1" departPos="7.60" departSpeed="0.00" departDelay="0.00" arrival="65.00" arrivalLane="0to3_0" arrivalPos="41.95" arrivalSpeed="9.29" duration="19.00" routeLength="92.84" waitSteps="0" timeLoss="12.27" rerouteNo="0" devices="tripinfo_p4to3_37" vType="CarD" vaporized=""/>
    <tripinfo id="p3to2_44" depart="57.00" departLane="3to0_0" departPos="5.10" departSpeed="0.00" departDelay="0.00" arrival="66.00" arrivalLane="0to2_0" arrivalPos="41.95" arrivalSpeed="13.76" duration="9.00" routeLength="85.22" waitSteps="0" timeLoss="2.10" rerouteNo="0" devices="tripinfo_p3to2_44" vType="CarA" vaporized=""/>
    <tripinfo id="p4to1_35" depart="42.00" departLane="4to0_0" departPos="5.10" departSpeed="0.00" departDelay="0.00" arrival="68.00" arrivalLane="0to1_0" arrivalPos="41.95" arrivalSpeed="7.97" duration="26.00" routeLength="85.22" waitSteps="2" timeLoss="19.81" rerouteNo="0" devices="tripinfo_p4to1_35" vType="CarC" vaporized=""/>
    <tripinfo id="p3to4_45" depart="58.00" departLane="3to0_1" departPos="7.60" departSpeed="0.00" departDelay="0.00" arrival="69.00" arrivalLane="0to4_0" arrivalPos="41.95" arrivalSpeed="13.11" duration="11.00" routeLength="92.84" waitSteps="0" timeLoss="3.98" rerouteNo="0" devices="tripinfo_p3to4_45" vType="CarB" vaporized=""/>
    <tripinfo id="p4to1_39" depart="50.00" departLane="4to0_0" departPos="5.10" departSpeed="0.00" departDelay="0.00" arrival="71.00" arrivalLane="0to1_0" arrivalPos="41.95" arrivalSpeed="9.25" duration="21.00" routeLength="85.22" waitSteps="0" timeLoss="14.48" rerouteNo="0" devices="tripinfo_p4to1_39" vType="CarC" vaporized=""/>
    <tripinfo id="p3to4_47" depart="61.00" departLane="3to0_0" departPos="7.60" departSpeed="0.00" departDelay="0.00" arrival="72.00" arrivalLane="0to4_1" arrivalPos="41.95" arrivalSpeed="13.24" duration="11.00" routeLength="92.84" waitSteps="0" timeLoss="4.16" rerouteNo="0" devices="tripinfo_p3to4_47" vType="CarB" vaporized=""/>
    <tripinfo id="p4to3_40" depart="53.00" departLane="4to0_1" departPos="7.60" departSpeed="0.00" departDelay="2.00" arrival="72.00" arrivalLane="0to3_0" arrivalPos="41.95" arrivalSpeed="10.54" duration="19.00" routeLength="92.84" waitSteps="0" timeLoss="11.78" rerouteNo="0" devices="tripinfo_p4to3_40" vType="CarD" vaporized=""/>
    <tripinfo id="p3to2_50" depart="64.00" departLane="3to0_0" departPos="5.10" departSpeed="0.00" departDelay="1.00" arrival="73.00" arrivalLane="0to2_0" arrivalPos="41.95" arrivalSpeed="13.84" duration="9.00" routeLength="85.22" waitSteps="0" timeLoss="2.54" rerouteNo="0" devices="tripinfo_p3to2_50" vType="CarA" vaporized=""/>
    <tripinfo id="p3to4_48" depart="62.00" departLane="3to0_1" departPos="7.60" departSpeed="0.00" departDelay="0.00" arrival="73.00" arrivalLane="0to4_0" arrivalPos="41.95" arrivalSpeed="13.49" duration="11.00" routeLength="92.84" waitSteps="0" timeLoss="4.24" rerouteNo="0" devices="tripinfo_p3to4_48" vType="CarB" vaporized=""/>
    <tripinfo id="p3to4_51" depart="66.00" departLane="3to0_1" departPos="7.60" departSpeed="0.00" departDelay="2.00" arrival="77.00" arrivalLane="0to4_0" arrivalPos="41.95" arrivalSpeed="13.58" duration="11.00" routeLength="92.84" waitSteps="0" timeLoss="3.68" rerouteNo="0" devices="tripinfo_p3to4_51" vType="CarB" vaporized=""/>
    <tripinfo id="p3to4_55" depart="68.00" departLane="3to0_0" departPos="7.60" departSpeed="0.00" departDelay="0.00" arrival="79.00" arrivalLane="0to4_1" arrivalPos="41.95" arrivalSpeed="13.85" duration="11.00" routeLength="92.84" waitSteps="0" timeLoss="3.56" rerouteNo="0" devices="tripinfo_p3to4_55" vType="CarB" vaporized=""/>
    <tripinfo id="p4to1_52" depart="64.00" departLane="4to0_0" departPos="5.10" departSpeed="0.00" departDelay="0.00" arrival="80.00" arrivalLane="0to1_0" arrivalPos="41.95" arrivalSpeed="10.70" duration="16.00" routeLength="85.22" waitSteps="0" timeLoss="9.64" rerouteNo="0" devices="tripinfo_p4to1_52" vType="CarC" vaporized=""/>
    <tripinfo id="p3to4_57" depart="73.00" departLane="3to0_1" departPos="7.60" departSpeed="0.00" departDelay="0.00" arrival="84.00" arrivalLane="0to4_0" arrivalPos="41.95" arrivalSpeed="13.47" duration="11.00" routeLength="92.84" waitSteps="0" timeLoss="3.54" rerouteNo="0" devices="tripinfo_p3to4_57" vType="CarB" vaporized=""/>
    <tripinfo id="p4to3_54" depart="67.00" departLane="4to0_1" departPos="7.60" departSpeed="0.00" departDelay="0.00" arrival="84.00" arrivalLane="0to3_0" arrivalPos="41.95" arrivalSpeed="11.76" duration="17.00" routeLength="92.84" waitSteps="0" timeLoss="9.54" rerouteNo="0" devices="tripinfo_p4to3_54" vType="CarD" vaporized=""/>
    <tripinfo id="p4to3_56" depart="72.00" departLane="4to0_0" departPos="7.60" departSpeed="0.00" departDelay="0.00" arrival="88.00" arrivalLane="0to3_1" arrivalPos="41.95" arrivalSpeed="11.15" duration="16.00" routeLength="92.84" waitSteps="0" timeLoss="8.94" rerouteNo="0" devices="tripinfo_p4to3_56" vType="CarD" vaporized=""/>
    <tripinfo id="p3to4_61" depart="79.00" departLane="3to0_0" departPos="7.60" departSpeed="0.00" departDelay="0.00" arrival="90.00" arrivalLane="0to4_1" arrivalPos="41.95" arrivalSpeed="13.69" duration="11.00" routeLength="92.84" waitSteps="0" timeLoss="3.61" rerouteNo="0" devices="tripinfo_p3to4_61" vType="CarB" vaporized=""/>
    <tripinfo id="p3to2_66" depart="85.00" departLane="3to0_1" departPos="5.10" departSpeed="0.00" departDelay="0.00" arrival="94.00" arrivalLane="0to2_0" arrivalPos="41.95" arrivalSpeed="13.47" duration="9.00" routeLength="85.22" waitSteps="0" timeLoss="2.32" rerouteNo="0" devices="tripinfo_p3to2_66" vType="CarA" vaporized=""/>
    <tripinfo id="p4to1_58" depart="74.00" departLane="4to0_1" departPos="5.10" departSpeed="0.00" departDelay="0.00" arrival="94.00" arrivalLane="0to1_0" arrivalPos="41.95" arrivalSpeed="11.03" duration="20.00" routeLength="85.22" waitSteps="0" timeLoss="13.23" rerouteNo="0" devices="tripinfo_p4to1_58" vType="CarC" vaporized=""/>
</tripinfos>
