<?xml version="1.0" encoding="UTF-8"?>

<!-- generated on Mon 10 Oct 2016 04:44:49 PM BRT by SUMO gui Version 0.26.0
<?xml version="1.0" encoding="UTF-8"?>

<configuration xmlns:xsi="http://www.w3.org/2001/XMLSchema-instance" xsi:noNamespaceSchemaLocation="http://sumo.dlr.de/xsd/sumo-gui.exeConfiguration.xsd">

    <input>
        <net-file value="data/cross.net.xml"/>
        <route-files value="data/cross.rou.xml"/>
        <additional-files value="data/cross.det.xml"/>
    </input>

    <output>
        <tripinfo-output value="tripinfo.xml"/>
    </output>

    <time>
        <begin value="0"/>
    </time>

    <report>
        <verbose value="true"/>
    </report>

    <traci_server>
        <remote-port value="8873"/>
    </traci_server>

    <gui_only>
        <gui-settings-file value="data/cross.settings.xml"/>
    </gui_only>

</configuration>
-->

<tripinfos xmlns:xsi="http://www.w3.org/2001/XMLSchema-instance" xsi:noNamespaceSchemaLocation="http://sumo.dlr.de/xsd/tripinfo_file.xsd">
    <tripinfo id="p3to2_3" depart="1.00" departLane="3to0_0" departPos="5.10" departSpeed="0.00" departDelay="0.00" arrival="10.00" arrivalLane="0to2_0" arrivalPos="41.95" arrivalSpeed="13.56" duration="9.00" routeLength="85.22" waitSteps="0" timeLoss="2.08" rerouteNo="0" devices="tripinfo_p3to2_3" vType="CarA" vaporized=""/>
    <tripinfo id="p3to2_8" depart="5.00" departLane="3to0_0" departPos="5.10" departSpeed="0.00" departDelay="0.00" arrival="14.00" arrivalLane="0to2_0" arrivalPos="41.95" arrivalSpeed="13.53" duration="9.00" routeLength="85.22" waitSteps="0" timeLoss="2.09" rerouteNo="0" devices="tripinfo_p3to2_8" vType="CarA" vaporized=""/>
    <tripinfo id="p4to3_1" depart="0.00" departLane="4to0_0" departPos="7.60" departSpeed="0.00" departDelay="0.00" arrival="18.00" arrivalLane="0to3_1" arrivalPos="41.95" arrivalSpeed="10.77" duration="18.00" routeLength="92.84" waitSteps="0" timeLoss="11.07" rerouteNo="0" devices="tripinfo_p4to3_1" vType="CarD" vaporized=""/>
    <tripinfo id="p3to2_13" depart="12.00" departLane="3to0_0" departPos="5.10" departSpeed="0.00" departDelay="0.00" arrival="21.00" arrivalLane="0to2_0" arrivalPos="41.95" arrivalSpeed="13.62" duration="9.00" routeLength="85.22" waitSteps="0" timeLoss="2.28" rerouteNo="0" devices="tripinfo_p3to2_13" vType="CarA" vaporized=""/>
    <tripinfo id="p3to2_14" depart="15.00" departLane="3to0_0" departPos="5.10" departSpeed="0.00" departDelay="0.00" arrival="24.00" arrivalLane="0to2_0" arrivalPos="41.95" arrivalSpeed="13.90" duration="9.00" routeLength="85.22" waitSteps="0" timeLoss="2.09" rerouteNo="0" devices="tripinfo_p3to2_14" vType="CarA" vaporized=""/>
    <tripinfo id="p4to1_12" depart="11.00" departLane="4to0_0" departPos="5.10" departSpeed="0.00" departDelay="0.00" arrival="26.00" arrivalLane="0to1_0" arrivalPos="41.95" arrivalSpeed="10.55" duration="15.00" routeLength="85.22" waitSteps="0" timeLoss="8.77" rerouteNo="0" devices="tripinfo_p4to1_12" vType="CarC" vaporized=""/>
    <tripinfo id="p3to4_20" depart="20.00" departLane="3to0_0" departPos="7.60" departSpeed="0.00" departDelay="0.00" arrival="31.00" arrivalLane="0to4_1" arrivalPos="41.95" arrivalSpeed="13.62" duration="11.00" routeLength="92.84" waitSteps="0" timeLoss="4.10" rerouteNo="0" devices="tripinfo_p3to4_20" vType="CarB" vaporized=""/>
    <tripinfo id="p4to1_15" depart="15.00" departLane="4to0_0" departPos="5.10" departSpeed="0.00" departDelay="0.00" arrival="31.00" arrivalLane="0to1_0" arrivalPos="41.95" arrivalSpeed="11.06" duration="16.00" routeLength="85.22" waitSteps="1" timeLoss="9.75" rerouteNo="0" devices="tripinfo_p4to1_15" vType="CarC" vaporized=""/>
    <tripinfo id="p3to4_23" depart="24.00" departLane="3to0_0" departPos="7.60" departSpeed="0.00" departDelay="0.00" arrival="35.00" arrivalLane="0to4_1" arrivalPos="41.95" arrivalSpeed="13.44" duration="11.00" routeLength="92.84" waitSteps="0" timeLoss="4.15" rerouteNo="0" devices="tripinfo_p3to4_23" vType="CarB" vaporized=""/>
    <tripinfo id="p4to1_17" depart="21.00" departLane="4to0_0" departPos="5.10" departSpeed="0.00" departDelay="5.00" arrival="37.00" arrivalLane="0to1_0" arrivalPos="41.95" arrivalSpeed="10.36" duration="16.00" routeLength="85.22" waitSteps="0" timeLoss="9.54" rerouteNo="0" devices="tripinfo_p4to1_17" vType="CarC" vaporized=""/>
    <tripinfo id="p3to2_27" depart="31.00" departLane="3to0_0" departPos="5.10" departSpeed="0.00" departDelay="0.00" arrival="40.00" arrivalLane="0to2_0" arrivalPos="41.95" arrivalSpeed="13.78" duration="9.00" routeLength="85.22" waitSteps="0" timeLoss="2.28" rerouteNo="0" devices="tripinfo_p3to2_27" vType="CarA" vaporized=""/>
    <tripinfo id="p3to4_29" depart="34.00" departLane="3to0_0" departPos="7.60" departSpeed="0.00" departDelay="1.00" arrival="45.00" arrivalLane="0to4_1" arrivalPos="41.95" arrivalSpeed="13.31" duration="11.00" routeLength="92.84" waitSteps="0" timeLoss="3.79" rerouteNo="0" devices="tripinfo_p3to4_29" vType="CarB" vaporized=""/>
    <tripinfo id="p4to3_22" depart="26.00" departLane="4to0_0" departPos="7.60" departSpeed="0.00" departDelay="4.00" arrival="45.00" arrivalLane="0to3_1" arrivalPos="41.95" arrivalSpeed="10.60" duration="19.00" routeLength="92.84" waitSteps="1" timeLoss="11.72" rerouteNo="0" devices="tripinfo_p4to3_22" vType="CarD" vaporized=""/>
    <tripinfo id="p1to2_10" depart="11.00" departLane="1to0_0" departPos="5.10" departSpeed="0.00" departDelay="0.00" arrival="51.00" arrivalLane="0to2_1" arrivalPos="41.95" arrivalSpeed="13.43" duration="40.00" routeLength="94.90" waitSteps="26" timeLoss="32.70" rerouteNo="0" devices="tripinfo_p1to2_10" vType="CarA" vaporized=""/>
    <tripinfo id="p1to3_0" depart="0.00" departLane="1to0_0" departPos="7.60" departSpeed="0.00" departDelay="0.00" arrival="52.00" arrivalLane="0to3_0" arrivalPos="41.95" arrivalSpeed="13.46" duration="52.00" routeLength="82.72" waitSteps="36" timeLoss="45.37" rerouteNo="0" devices="tripinfo_p1to3_0" vType="CarB" vaporized=""/>
    <tripinfo id="p1to3_2" depart="4.00" departLane="1to0_0" departPos="7.60" departSpeed="0.00" departDelay="3.00" arrival="54.00" arrivalLane="0to3_0" arrivalPos="41.95" arrivalSpeed="13.57" duration="50.00" routeLength="82.72" waitSteps="34" timeLoss="43.49" rerouteNo="0" devices="tripinfo_p1to3_2" vType="CarB" vaporized=""/>
    <tripinfo id="p1to3_7" depart="8.00" departLane="1to0_0" departPos="7.60" departSpeed="0.00" departDelay="3.00" arrival="56.00" arrivalLane="0to3_0" arrivalPos="41.95" arrivalSpeed="13.50" duration="48.00" routeLength="82.72" waitSteps="34" timeLoss="41.31" rerouteNo="0" devices="tripinfo_p1to3_7" vType="CarB" vaporized=""/>
    <tripinfo id="p2to1_5" depart="7.00" departLane="2to0_0" departPos="5.10" departSpeed="0.00" departDelay="4.00" arrival="57.00" arrivalLane="0to1_1" arrivalPos="41.95" arrivalSpeed="8.98" duration="50.00" routeLength="94.90" waitSteps="22" timeLoss="42.57" rerouteNo="0" devices="tripinfo_p2to1_5" vType="CarC" vaporized=""/>
    <tripinfo id="p2to4_4" depart="2.00" departLane="2to0_0" departPos="7.60" departSpeed="0.00" departDelay="0.00" arrival="58.00" arrivalLane="0to4_0" arrivalPos="41.95" arrivalSpeed="6.91" duration="56.00" routeLength="82.72" waitSteps="32" timeLoss="49.93" rerouteNo="0" devices="tripinfo_p2to4_4" vType="CarD" vaporized=""/>
    <tripinfo id="p1to3_11" depart="12.00" departLane="1to0_0" departPos="7.60" departSpeed="0.00" departDelay="1.00" arrival="58.00" arrivalLane="0to3_0" arrivalPos="41.95" arrivalSpeed="13.75" duration="46.00" routeLength="82.72" waitSteps="33" timeLoss="39.37" rerouteNo="0" devices="tripinfo_p1to3_11" vType="CarB" vaporized=""/>
    <tripinfo id="p1to2_18" depart="50.00" departLane="1to0_0" departPos="5.10" departSpeed="0.00" departDelay="33.00" arrival="60.00" arrivalLane="0to2_0" arrivalPos="41.95" arrivalSpeed="13.51" duration="10.00" routeLength="94.90" waitSteps="0" timeLoss="3.03" rerouteNo="0" devices="tripinfo_p1to2_18" vType="CarA" vaporized=""/>
    <tripinfo id="p2to4_6" depart="13.00" departLane="2to0_0" departPos="7.60" departSpeed="0.00" departDelay="10.00" arrival="61.00" arrivalLane="0to4_0" arrivalPos="41.95" arrivalSpeed="8.11" duration="48.00" routeLength="82.72" waitSteps="21" timeLoss="41.66" rerouteNo="0" devices="tripinfo_p2to4_6" vType="CarD" vaporized=""/>
    <tripinfo id="p1to2_19" depart="53.00" departLane="1to0_0" departPos="5.10" departSpeed="0.00" departDelay="33.00" arrival="63.00" arrivalLane="0to2_0" arrivalPos="41.95" arrivalSpeed="13.63" duration="10.00" routeLength="94.90" waitSteps="0" timeLoss="2.83" rerouteNo="0" devices="tripinfo_p1to2_19" vType="CarA" vaporized=""/>
    <tripinfo id="p2to4_9" depart="20.00" departLane="2to0_0" departPos="7.60" departSpeed="0.00" departDelay="12.00" arrival="64.00" arrivalLane="0to4_0" arrivalPos="41.95" arrivalSpeed="8.03" duration="44.00" routeLength="82.72" waitSteps="20" timeLoss="37.64" rerouteNo="0" devices="tripinfo_p2to4_9" vType="CarD" vaporized=""/>
    <tripinfo id="p1to2_21" depart="56.00" departLane="1to0_0" departPos="5.10" departSpeed="0.00" departDelay="34.00" arrival="65.00" arrivalLane="0to2_0" arrivalPos="41.95" arrivalSpeed="13.78" duration="9.00" routeLength="94.90" waitSteps="0" timeLoss="2.05" rerouteNo="0" devices="tripinfo_p1to2_21" vType="CarA" vaporized=""/>
    <tripinfo id="p2to4_16" depart="26.00" departLane="2to0_0" departPos="7.60" departSpeed="0.00" departDelay="10.00" arrival="66.00" arrivalLane="0to4_0" arrivalPos="41.95" arrivalSpeed="8.61" duration="40.00" routeLength="82.72" waitSteps="19" timeLoss="33.85" rerouteNo="0" devices="tripinfo_p2to4_16" vType="CarD" vaporized=""/>
    <tripinfo id="p1to2_25" depart="58.00" departLane="1to0_0" departPos="5.10" departSpeed="0.00" departDelay="30.00" arrival="68.00" arrivalLane="0to2_0" arrivalPos="41.95" arrivalSpeed="13.46" duration="10.00" routeLength="94.90" waitSteps="0" timeLoss="2.85" rerouteNo="0" devices="tripinfo_p1to2_25" vType="CarA" vaporized=""/>
    <tripinfo id="p2to1_31" depart="53.00" departLane="2to0_0" departPos="5.10" departSpeed="0.00" departDelay="17.00" arrival="69.00" arrivalLane="0to1_0" arrivalPos="41.95" arrivalSpeed="11.20" duration="16.00" routeLength="94.90" waitSteps="0" timeLoss="9.11" rerouteNo="0" devices="tripinfo_p2to1_31" vType="CarC" vaporized=""/>
    <tripinfo id="p1to2_28" depart="61.00" departLane="1to0_0" departPos="5.10" departSpeed="0.00" departDelay="29.00" arrival="71.00" arrivalLane="0to2_0" arrivalPos="41.95" arrivalSpeed="13.63" duration="10.00" routeLength="94.90" waitSteps="0" timeLoss="2.22" rerouteNo="0" devices="tripinfo_p1to2_28" vType="CarA" vaporized=""/>
    <tripinfo id="p1to3_32" depart="64.00" departLane="1to0_0" departPos="7.60" departSpeed="0.00" departDelay="27.00" arrival="74.00" arrivalLane="0to3_0" arrivalPos="41.95" arrivalSpeed="13.29" duration="10.00" routeLength="82.72" waitSteps="0" timeLoss="3.60" rerouteNo="0" devices="tripinfo_p1to3_32" vType="CarB" vaporized=""/>
    <tripinfo id="p2to1_33" depart="58.00" departLane="2to0_0" departPos="5.10" departSpeed="0.00" departDelay="21.00" arrival="74.00" arrivalLane="0to1_0" arrivalPos="41.95" arrivalSpeed="11.30" duration="16.00" routeLength="94.90" waitSteps="0" timeLoss="9.35" rerouteNo="0" devices="tripinfo_p2to1_33" vType="CarC" vaporized=""/>
    <tripinfo id="p1to2_36" depart="67.00" departLane="1to0_0" departPos="5.10" departSpeed="0.00" departDelay="21.00" arrival="77.00" arrivalLane="0to2_0" arrivalPos="41.95" arrivalSpeed="13.47" duration="10.00" routeLength="94.90" waitSteps="0" timeLoss="2.24" rerouteNo="0" devices="tripinfo_p1to2_36" vType="CarA" vaporized=""/>
    <tripinfo id="p2to1_38" depart="63.00" departLane="2to0_0" departPos="5.10" departSpeed="0.00" departDelay="14.00" arrival="79.00" arrivalLane="0to1_0" arrivalPos="41.95" arrivalSpeed="11.95" duration="16.00" routeLength="94.90" waitSteps="0" timeLoss="8.57" rerouteNo="0" devices="tripinfo_p2to1_38" vType="CarC" vaporized=""/>
    <tripinfo id="p1to3_46" depart="70.00" departLane="1to0_0" departPos="7.60" departSpeed="0.00" departDelay="10.00" arrival="81.00" arrivalLane="0to3_0" arrivalPos="41.95" arrivalSpeed="13.49" duration="11.00" routeLength="82.72" waitSteps="0" timeLoss="4.27" rerouteNo="0" devices="tripinfo_p1to3_46" vType="CarB" vaporized=""/>
    <tripinfo id="p1to2_49" depart="73.00" departLane="1to0_0" departPos="5.10" departSpeed="0.00" departDelay="10.00" arrival="83.00" arrivalLane="0to2_0" arrivalPos="41.95" arrivalSpeed="13.53" duration="10.00" routeLength="94.90" waitSteps="0" timeLoss="2.80" rerouteNo="0" devices="tripinfo_p1to2_49" vType="CarA" vaporized=""/>
    <tripinfo id="p2to4_41" depart="68.00" departLane="2to0_0" departPos="7.60" departSpeed="0.00" departDelay="16.00" arrival="85.00" arrivalLane="0to4_0" arrivalPos="41.95" arrivalSpeed="9.39" duration="17.00" routeLength="82.72" waitSteps="0" timeLoss="10.85" rerouteNo="0" devices="tripinfo_p2to4_41" vType="CarD" vaporized=""/>
    <tripinfo id="p1to2_53" depart="76.00" departLane="1to0_0" departPos="5.10" departSpeed="0.00" departDelay="10.00" arrival="86.00" arrivalLane="0to2_0" arrivalPos="41.95" arrivalSpeed="13.37" duration="10.00" routeLength="94.90" waitSteps="0" timeLoss="2.32" rerouteNo="0" devices="tripinfo_p1to2_53" vType="CarA" vaporized=""/>
    <tripinfo id="p1to2_59" depart="78.00" departLane="1to0_0" departPos="5.10" departSpeed="0.00" departDelay="3.00" arrival="88.00" arrivalLane="0to2_0" arrivalPos="41.95" arrivalSpeed="13.80" duration="10.00" routeLength="94.90" waitSteps="0" timeLoss="2.89" rerouteNo="0" devices="tripinfo_p1to2_59" vType="CarA" vaporized=""/>
    <tripinfo id="p3to2_34" depart="40.00" departLane="3to0_0" departPos="5.10" departSpeed="0.00" departDelay="0.00" arrival="95.00" arrivalLane="0to2_0" arrivalPos="41.95" arrivalSpeed="13.58" duration="55.00" routeLength="85.22" waitSteps="42" timeLoss="48.53" rerouteNo="0" devices="tripinfo_p3to2_34" vType="CarA" vaporized=""/>
    <tripinfo id="p3to4_45" depart="60.00" departLane="3to0_0" departPos="7.60" departSpeed="0.00" departDelay="2.00" arrival="97.00" arrivalLane="0to4_0" arrivalPos="41.95" arrivalSpeed="13.44" duration="37.00" routeLength="92.84" waitSteps="19" timeLoss="30.28" rerouteNo="0" devices="tripinfo_p3to4_45" vType="CarB" vaporized=""/>
    <tripinfo id="p3to2_44" depart="57.00" departLane="3to0_0" departPos="5.10" departSpeed="0.00" departDelay="0.00" arrival="97.00" arrivalLane="0to2_0" arrivalPos="41.95" arrivalSpeed="13.61" duration="40.00" routeLength="85.22" waitSteps="28" timeLoss="33.16" rerouteNo="0" devices="tripinfo_p3to2_44" vType="CarA" vaporized=""/>
    <tripinfo id="p3to4_48" depart="68.00" departLane="3to0_0" departPos="7.60" departSpeed="0.00" departDelay="6.00" arrival="100.00" arrivalLane="0to4_1" arrivalPos="41.95" arrivalSpeed="13.25" duration="32.00" routeLength="92.84" waitSteps="16" timeLoss="25.11" rerouteNo="0" devices="tripinfo_p3to4_48" vType="CarB" vaporized=""/>
    <tripinfo id="p3to4_47" depart="63.00" departLane="3to0_0" departPos="7.60" departSpeed="0.00" departDelay="2.00" arrival="100.00" arrivalLane="0to4_0" arrivalPos="41.95" arrivalSpeed="13.86" duration="37.00" routeLength="92.84" waitSteps="19" timeLoss="29.65" rerouteNo="0" devices="tripinfo_p3to4_47" vType="CarB" vaporized=""/>
    <tripinfo id="p3to2_50" depart="71.00" departLane="3to0_0" departPos="5.10" departSpeed="0.00" departDelay="8.00" arrival="101.00" arrivalLane="0to2_0" arrivalPos="41.95" arrivalSpeed="13.67" duration="30.00" routeLength="85.22" waitSteps="16" timeLoss="23.34" rerouteNo="0" devices="tripinfo_p3to2_50" vType="CarA" vaporized=""/>
    <tripinfo id="p4to3_30" depart="43.00" departLane="4to0_0" departPos="7.60" departSpeed="0.00" departDelay="8.00" arrival="103.00" arrivalLane="0to3_0" arrivalPos="41.95" arrivalSpeed="9.36" duration="60.00" routeLength="92.84" waitSteps="33" timeLoss="52.92" rerouteNo="0" devices="tripinfo_p4to3_30" vType="CarD" vaporized=""/>
    <tripinfo id="p4to3_24" depart="33.00" departLane="4to0_0" departPos="7.60" departSpeed="0.00" departDelay="8.00" arrival="103.00" arrivalLane="0to3_1" arrivalPos="41.95" arrivalSpeed="8.63" duration="70.00" routeLength="92.84" waitSteps="46" timeLoss="63.01" rerouteNo="0" devices="tripinfo_p4to3_24" vType="CarD" vaporized=""/>
    <tripinfo id="p3to4_51" depart="93.00" departLane="3to0_0" departPos="7.60" departSpeed="0.00" departDelay="29.00" arrival="104.00" arrivalLane="0to4_1" arrivalPos="41.95" arrivalSpeed="13.81" duration="11.00" routeLength="92.84" waitSteps="0" timeLoss="3.88" rerouteNo="0" devices="tripinfo_p3to4_51" vType="CarB" vaporized=""/>
    <tripinfo id="p4to1_26" depart="37.00" departLane="4to0_0" departPos="5.10" departSpeed="0.00" departDelay="9.00" arrival="104.00" arrivalLane="0to1_0" arrivalPos="41.95" arrivalSpeed="9.84" duration="67.00" routeLength="85.22" waitSteps="43" timeLoss="60.15" rerouteNo="0" devices="tripinfo_p4to1_26" vType="CarC" vaporized=""/>
</tripinfos>
