<?xml version="1.0" encoding="UTF-8"?>

<!-- generated on Wed 12 Oct 2016 09:37:17 PM BRT by SUMO gui Version 0.26.0
<?xml version="1.0" encoding="UTF-8"?>

<configuration xmlns:xsi="http://www.w3.org/2001/XMLSchema-instance" xsi:noNamespaceSchemaLocation="http://sumo.dlr.de/xsd/sumo-gui.exeConfiguration.xsd">

    <input>
        <net-file value="data/cross.net.xml"/>
        <route-files value="data/cross.rou.xml"/>
        <additional-files value="data/cross.det.xml"/>
    </input>

    <output>
        <tripinfo-output value="tripinfo.xml"/>
    </output>

    <time>
        <begin value="0"/>
    </time>

    <report>
        <verbose value="true"/>
    </report>

    <traci_server>
        <remote-port value="8873"/>
    </traci_server>

    <gui_only>
        <gui-settings-file value="data/cross.settings.xml"/>
    </gui_only>

</configuration>
-->

<tripinfos xmlns:xsi="http://www.w3.org/2001/XMLSchema-instance" xsi:noNamespaceSchemaLocation="http://sumo.dlr.de/xsd/tripinfo_file.xsd">
    <tripinfo id="p3to2_3" depart="1.00" departLane="3to0_0" departPos="5.10" departSpeed="0.00" departDelay="0.00" arrival="15.00" arrivalLane="0to2_0" arrivalPos="41.95" arrivalSpeed="13.47" duration="14.00" routeLength="85.22" waitSteps="1" timeLoss="7.58" rerouteNo="0" devices="tripinfo_p3to2_3" vType="CarA" vaporized=""/>
    <tripinfo id="p3to2_8" depart="5.00" departLane="3to0_0" departPos="5.10" departSpeed="0.00" departDelay="0.00" arrival="17.00" arrivalLane="0to2_0" arrivalPos="41.95" arrivalSpeed="13.69" duration="12.00" routeLength="85.22" waitSteps="0" timeLoss="5.36" rerouteNo="0" devices="tripinfo_p3to2_8" vType="CarA" vaporized=""/>
    <tripinfo id="p4to3_1" depart="0.00" departLane="4to0_0" departPos="7.60" departSpeed="0.00" departDelay="0.00" arrival="19.00" arrivalLane="0to3_1" arrivalPos="41.95" arrivalSpeed="9.61" duration="19.00" routeLength="92.84" waitSteps="0" timeLoss="11.82" rerouteNo="0" devices="tripinfo_p4to3_1" vType="CarD" vaporized=""/>
    <tripinfo id="p3to2_13" depart="12.00" departLane="3to0_0" departPos="5.10" departSpeed="0.00" departDelay="0.00" arrival="21.00" arrivalLane="0to2_0" arrivalPos="41.95" arrivalSpeed="13.42" duration="9.00" routeLength="85.22" waitSteps="0" timeLoss="2.05" rerouteNo="0" devices="tripinfo_p3to2_13" vType="CarA" vaporized=""/>
    <tripinfo id="p3to2_14" depart="15.00" departLane="3to0_0" departPos="5.10" departSpeed="0.00" departDelay="0.00" arrival="24.00" arrivalLane="0to2_0" arrivalPos="41.95" arrivalSpeed="13.83" duration="9.00" routeLength="85.22" waitSteps="0" timeLoss="2.29" rerouteNo="0" devices="tripinfo_p3to2_14" vType="CarA" vaporized=""/>
    <tripinfo id="p4to1_12" depart="11.00" departLane="4to0_0" departPos="5.10" departSpeed="0.00" departDelay="0.00" arrival="26.00" arrivalLane="0to1_0" arrivalPos="41.95" arrivalSpeed="10.59" duration="15.00" routeLength="85.22" waitSteps="0" timeLoss="8.74" rerouteNo="0" devices="tripinfo_p4to1_12" vType="CarC" vaporized=""/>
    <tripinfo id="p3to4_20" depart="20.00" departLane="3to0_0" departPos="7.60" departSpeed="0.00" departDelay="0.00" arrival="31.00" arrivalLane="0to4_1" arrivalPos="41.95" arrivalSpeed="13.34" duration="11.00" routeLength="92.84" waitSteps="0" timeLoss="4.03" rerouteNo="0" devices="tripinfo_p3to4_20" vType="CarB" vaporized=""/>
    <tripinfo id="p4to1_15" depart="16.00" departLane="4to0_0" departPos="5.10" departSpeed="0.00" departDelay="1.00" arrival="33.00" arrivalLane="0to1_0" arrivalPos="41.95" arrivalSpeed="10.80" duration="17.00" routeLength="85.22" waitSteps="0" timeLoss="10.15" rerouteNo="0" devices="tripinfo_p4to1_15" vType="CarC" vaporized=""/>
    <tripinfo id="p3to4_23" depart="24.00" departLane="3to0_0" departPos="7.60" departSpeed="0.00" departDelay="0.00" arrival="35.00" arrivalLane="0to4_1" arrivalPos="41.95" arrivalSpeed="13.48" duration="11.00" routeLength="92.84" waitSteps="0" timeLoss="3.74" rerouteNo="0" devices="tripinfo_p3to4_23" vType="CarB" vaporized=""/>
    <tripinfo id="p4to1_17" depart="21.00" departLane="4to0_0" departPos="5.10" departSpeed="0.00" departDelay="5.00" arrival="38.00" arrivalLane="0to1_0" arrivalPos="41.95" arrivalSpeed="10.72" duration="17.00" routeLength="85.22" waitSteps="0" timeLoss="10.32" rerouteNo="0" devices="tripinfo_p4to1_17" vType="CarC" vaporized=""/>
    <tripinfo id="p3to2_27" depart="31.00" departLane="3to0_0" departPos="5.10" departSpeed="0.00" departDelay="0.00" arrival="40.00" arrivalLane="0to2_0" arrivalPos="41.95" arrivalSpeed="13.69" duration="9.00" routeLength="85.22" waitSteps="0" timeLoss="2.04" rerouteNo="0" devices="tripinfo_p3to2_27" vType="CarA" vaporized=""/>
    <tripinfo id="p3to4_29" depart="34.00" departLane="3to0_0" departPos="7.60" departSpeed="0.00" departDelay="1.00" arrival="46.00" arrivalLane="0to4_1" arrivalPos="41.95" arrivalSpeed="13.79" duration="12.00" routeLength="92.84" waitSteps="0" timeLoss="4.47" rerouteNo="0" devices="tripinfo_p3to4_29" vType="CarB" vaporized=""/>
    <tripinfo id="p4to3_22" depart="27.00" departLane="4to0_0" departPos="7.60" departSpeed="0.00" departDelay="5.00" arrival="46.00" arrivalLane="0to3_1" arrivalPos="41.95" arrivalSpeed="9.73" duration="19.00" routeLength="92.84" waitSteps="0" timeLoss="11.72" rerouteNo="0" devices="tripinfo_p4to3_22" vType="CarD" vaporized=""/>
    <tripinfo id="p3to2_34" depart="40.00" departLane="3to0_0" departPos="5.10" departSpeed="0.00" departDelay="0.00" arrival="49.00" arrivalLane="0to2_0" arrivalPos="41.95" arrivalSpeed="13.33" duration="9.00" routeLength="85.22" waitSteps="0" timeLoss="2.33" rerouteNo="0" devices="tripinfo_p3to2_34" vType="CarA" vaporized=""/>
    <tripinfo id="p4to3_24" depart="33.00" departLane="4to0_0" departPos="7.60" departSpeed="0.00" departDelay="8.00" arrival="51.00" arrivalLane="0to3_1" arrivalPos="41.95" arrivalSpeed="10.69" duration="18.00" routeLength="92.84" waitSteps="0" timeLoss="11.12" rerouteNo="0" devices="tripinfo_p4to3_24" vType="CarD" vaporized=""/>
    <tripinfo id="p4to1_26" depart="39.00" departLane="4to0_0" departPos="5.10" departSpeed="0.00" departDelay="11.00" arrival="55.00" arrivalLane="0to1_0" arrivalPos="41.95" arrivalSpeed="11.61" duration="16.00" routeLength="85.22" waitSteps="0" timeLoss="9.25" rerouteNo="0" devices="tripinfo_p4to1_26" vType="CarC" vaporized=""/>
    <tripinfo id="p1to2_10" depart="11.00" departLane="1to0_0" departPos="5.10" departSpeed="0.00" departDelay="0.00" arrival="61.00" arrivalLane="0to2_1" arrivalPos="41.95" arrivalSpeed="13.75" duration="50.00" routeLength="94.90" waitSteps="36" timeLoss="42.51" rerouteNo="0" devices="tripinfo_p1to2_10" vType="CarA" vaporized=""/>
    <tripinfo id="p1to3_0" depart="0.00" departLane="1to0_0" departPos="7.60" departSpeed="0.00" departDelay="0.00" arrival="62.00" arrivalLane="0to3_0" arrivalPos="41.95" arrivalSpeed="12.68" duration="62.00" routeLength="82.72" waitSteps="46" timeLoss="55.30" rerouteNo="0" devices="tripinfo_p1to3_0" vType="CarB" vaporized=""/>
    <tripinfo id="p3to2_44" depart="57.00" departLane="3to0_0" departPos="5.10" departSpeed="0.00" departDelay="0.00" arrival="66.00" arrivalLane="0to2_0" arrivalPos="41.95" arrivalSpeed="13.90" duration="9.00" routeLength="85.22" waitSteps="0" timeLoss="2.06" rerouteNo="0" devices="tripinfo_p3to2_44" vType="CarA" vaporized=""/>
    <tripinfo id="p3to4_45" depart="60.00" departLane="3to0_0" departPos="7.60" departSpeed="0.00" departDelay="2.00" arrival="71.00" arrivalLane="0to4_1" arrivalPos="41.95" arrivalSpeed="13.45" duration="11.00" routeLength="92.84" waitSteps="0" timeLoss="3.74" rerouteNo="0" devices="tripinfo_p3to4_45" vType="CarB" vaporized=""/>
    <tripinfo id="p4to3_30" depart="45.00" departLane="4to0_0" departPos="7.60" departSpeed="0.00" departDelay="10.00" arrival="74.00" arrivalLane="0to3_1" arrivalPos="41.95" arrivalSpeed="7.83" duration="29.00" routeLength="92.84" waitSteps="0" timeLoss="22.23" rerouteNo="0" devices="tripinfo_p4to3_30" vType="CarD" vaporized=""/>
    <tripinfo id="p3to4_47" depart="63.00" departLane="3to0_0" departPos="7.60" departSpeed="0.00" departDelay="2.00" arrival="75.00" arrivalLane="0to4_1" arrivalPos="41.95" arrivalSpeed="13.77" duration="12.00" routeLength="92.84" waitSteps="1" timeLoss="5.05" rerouteNo="0" devices="tripinfo_p3to4_47" vType="CarB" vaporized=""/>
    <tripinfo id="p4to3_37" depart="57.00" departLane="4to0_0" departPos="7.60" departSpeed="0.00" departDelay="11.00" arrival="75.00" arrivalLane="0to3_0" arrivalPos="41.95" arrivalSpeed="11.34" duration="18.00" routeLength="92.84" waitSteps="0" timeLoss="11.11" rerouteNo="0" devices="tripinfo_p4to3_37" vType="CarD" vaporized=""/>
    <tripinfo id="p4to1_35" depart="52.00" departLane="4to0_0" departPos="5.10" departSpeed="0.00" departDelay="10.00" arrival="75.00" arrivalLane="0to1_0" arrivalPos="41.95" arrivalSpeed="9.04" duration="23.00" routeLength="85.22" waitSteps="0" timeLoss="16.46" rerouteNo="0" devices="tripinfo_p4to1_35" vType="CarC" vaporized=""/>
    <tripinfo id="p4to1_39" depart="63.00" departLane="4to0_0" departPos="5.10" departSpeed="0.00" departDelay="13.00" arrival="78.00" arrivalLane="0to1_0" arrivalPos="41.95" arrivalSpeed="10.41" duration="15.00" routeLength="85.22" waitSteps="0" timeLoss="8.67" rerouteNo="0" devices="tripinfo_p4to1_39" vType="CarC" vaporized=""/>
    <tripinfo id="p3to4_48" depart="68.00" departLane="3to0_0" departPos="7.60" departSpeed="0.00" departDelay="6.00" arrival="79.00" arrivalLane="0to4_1" arrivalPos="41.95" arrivalSpeed="13.16" duration="11.00" routeLength="92.84" waitSteps="0" timeLoss="4.00" rerouteNo="0" devices="tripinfo_p3to4_48" vType="CarB" vaporized=""/>
    <tripinfo id="p3to2_50" depart="71.00" departLane="3to0_0" departPos="5.10" departSpeed="0.00" departDelay="8.00" arrival="80.00" arrivalLane="0to2_0" arrivalPos="41.95" arrivalSpeed="13.45" duration="9.00" routeLength="85.22" waitSteps="0" timeLoss="2.51" rerouteNo="0" devices="tripinfo_p3to2_50" vType="CarA" vaporized=""/>
    <tripinfo id="p3to4_51" depart="74.00" departLane="3to0_0" departPos="7.60" departSpeed="0.00" departDelay="10.00" arrival="85.00" arrivalLane="0to4_1" arrivalPos="41.95" arrivalSpeed="13.54" duration="11.00" routeLength="92.84" waitSteps="0" timeLoss="4.22" rerouteNo="0" devices="tripinfo_p3to4_51" vType="CarB" vaporized=""/>
    <tripinfo id="p4to3_40" depart="68.00" departLane="4to0_0" departPos="7.60" departSpeed="0.00" departDelay="17.00" arrival="85.00" arrivalLane="0to3_1" arrivalPos="41.95" arrivalSpeed="10.09" duration="17.00" routeLength="92.84" waitSteps="0" timeLoss="9.89" rerouteNo="0" devices="tripinfo_p4to3_40" vType="CarD" vaporized=""/>
    <tripinfo id="p3to4_55" depart="78.00" departLane="3to0_0" departPos="7.60" departSpeed="0.00" departDelay="10.00" arrival="89.00" arrivalLane="0to4_1" arrivalPos="41.95" arrivalSpeed="13.35" duration="11.00" routeLength="92.84" waitSteps="0" timeLoss="3.97" rerouteNo="0" devices="tripinfo_p3to4_55" vType="CarB" vaporized=""/>
    <tripinfo id="p4to1_52" depart="73.00" departLane="4to0_0" departPos="5.10" departSpeed="0.00" departDelay="9.00" arrival="89.00" arrivalLane="0to1_0" arrivalPos="41.95" arrivalSpeed="10.93" duration="16.00" routeLength="85.22" waitSteps="0" timeLoss="9.51" rerouteNo="0" devices="tripinfo_p4to1_52" vType="CarC" vaporized=""/>
    <tripinfo id="p3to4_57" depart="82.00" departLane="3to0_0" departPos="7.60" departSpeed="0.00" departDelay="9.00" arrival="93.00" arrivalLane="0to4_1" arrivalPos="41.95" arrivalSpeed="13.75" duration="11.00" routeLength="92.84" waitSteps="0" timeLoss="4.06" rerouteNo="0" devices="tripinfo_p3to4_57" vType="CarB" vaporized=""/>
    <tripinfo id="p3to4_61" depart="86.00" departLane="3to0_0" departPos="7.60" departSpeed="0.00" departDelay="7.00" arrival="97.00" arrivalLane="0to4_1" arrivalPos="41.95" arrivalSpeed="13.77" duration="11.00" routeLength="92.84" waitSteps="0" timeLoss="4.20" rerouteNo="0" devices="tripinfo_p3to4_61" vType="CarB" vaporized=""/>
    <tripinfo id="p4to3_54" depart="79.00" departLane="4to0_0" departPos="7.60" departSpeed="0.00" departDelay="12.00" arrival="97.00" arrivalLane="0to3_1" arrivalPos="41.95" arrivalSpeed="10.97" duration="18.00" routeLength="92.84" waitSteps="0" timeLoss="10.70" rerouteNo="0" devices="tripinfo_p4to3_54" vType="CarD" vaporized=""/>
    <tripinfo id="p3to2_66" depart="89.00" departLane="3to0_0" departPos="5.10" departSpeed="0.00" departDelay="4.00" arrival="98.00" arrivalLane="0to2_0" arrivalPos="41.95" arrivalSpeed="13.74" duration="9.00" routeLength="85.22" waitSteps="0" timeLoss="2.73" rerouteNo="0" devices="tripinfo_p3to2_66" vType="CarA" vaporized=""/>
    <tripinfo id="p3to2_69" depart="92.00" departLane="3to0_0" departPos="5.10" departSpeed="0.00" departDelay="3.00" arrival="101.00" arrivalLane="0to2_0" arrivalPos="41.95" arrivalSpeed="13.78" duration="9.00" routeLength="85.22" waitSteps="0" timeLoss="2.17" rerouteNo="0" devices="tripinfo_p3to2_69" vType="CarA" vaporized=""/>
    <tripinfo id="p4to3_56" depart="86.00" departLane="4to0_0" departPos="7.60" departSpeed="0.00" departDelay="14.00" arrival="102.00" arrivalLane="0to3_1" arrivalPos="41.95" arrivalSpeed="11.03" duration="16.00" routeLength="92.84" waitSteps="0" timeLoss="9.08" rerouteNo="0" devices="tripinfo_p4to3_56" vType="CarD" vaporized=""/>
</tripinfos>
