<?xml version="1.0" encoding="UTF-8"?>

<!-- generated on Wed 12 Oct 2016 10:15:41 PM BRT by SUMO gui Version 0.26.0
<?xml version="1.0" encoding="UTF-8"?>

<configuration xmlns:xsi="http://www.w3.org/2001/XMLSchema-instance" xsi:noNamespaceSchemaLocation="http://sumo.dlr.de/xsd/sumo-gui.exeConfiguration.xsd">

    <input>
        <net-file value="data/cross.net.xml"/>
        <route-files value="data/cross.rou.xml"/>
        <additional-files value="data/cross.det.xml"/>
    </input>

    <output>
        <tripinfo-output value="tripinfo.xml"/>
    </output>

    <time>
        <begin value="0"/>
    </time>

    <report>
        <verbose value="true"/>
    </report>

    <traci_server>
        <remote-port value="8873"/>
    </traci_server>

    <gui_only>
        <gui-settings-file value="data/cross.settings.xml"/>
    </gui_only>

</configuration>
-->

<tripinfos xmlns:xsi="http://www.w3.org/2001/XMLSchema-instance" xsi:noNamespaceSchemaLocation="http://sumo.dlr.de/xsd/tripinfo_file.xsd">
    <tripinfo id="p3to2_3" depart="1.00" departLane="3to0_0" departPos="5.10" departSpeed="0.00" departDelay="0.00" arrival="14.00" arrivalLane="0to2_0" arrivalPos="41.95" arrivalSpeed="13.32" duration="13.00" routeLength="85.22" waitSteps="1" timeLoss="6.58" rerouteNo="0" devices="tripinfo_p3to2_3" vType="CarA" vaporized=""/>
    <tripinfo id="p3to2_8" depart="5.00" departLane="3to0_1" departPos="5.10" departSpeed="0.00" departDelay="0.00" arrival="16.00" arrivalLane="0to2_0" arrivalPos="41.95" arrivalSpeed="13.67" duration="11.00" routeLength="85.22" waitSteps="0" timeLoss="4.16" rerouteNo="0" devices="tripinfo_p3to2_8" vType="CarA" vaporized=""/>
    <tripinfo id="p4to3_1" depart="0.00" departLane="4to0_0" departPos="7.60" departSpeed="0.00" departDelay="0.00" arrival="18.00" arrivalLane="0to3_1" arrivalPos="41.95" arrivalSpeed="10.21" duration="18.00" routeLength="92.84" waitSteps="0" timeLoss="10.72" rerouteNo="0" devices="tripinfo_p4to3_1" vType="CarD" vaporized=""/>
    <tripinfo id="p3to2_13" depart="12.00" departLane="3to0_0" departPos="5.10" departSpeed="0.00" departDelay="0.00" arrival="21.00" arrivalLane="0to2_0" arrivalPos="41.95" arrivalSpeed="13.63" duration="9.00" routeLength="85.22" waitSteps="0" timeLoss="2.17" rerouteNo="0" devices="tripinfo_p3to2_13" vType="CarA" vaporized=""/>
    <tripinfo id="p3to2_14" depart="15.00" departLane="3to0_1" departPos="5.10" departSpeed="0.00" departDelay="0.00" arrival="24.00" arrivalLane="0to2_0" arrivalPos="41.95" arrivalSpeed="13.72" duration="9.00" routeLength="85.22" waitSteps="0" timeLoss="2.28" rerouteNo="0" devices="tripinfo_p3to2_14" vType="CarA" vaporized=""/>
    <tripinfo id="p4to1_12" depart="11.00" departLane="4to0_1" departPos="5.10" departSpeed="0.00" departDelay="0.00" arrival="26.00" arrivalLane="0to1_0" arrivalPos="41.95" arrivalSpeed="10.42" duration="15.00" routeLength="85.22" waitSteps="0" timeLoss="8.74" rerouteNo="0" devices="tripinfo_p4to1_12" vType="CarC" vaporized=""/>
    <tripinfo id="p3to4_20" depart="20.00" departLane="3to0_1" departPos="7.60" departSpeed="0.00" departDelay="0.00" arrival="31.00" arrivalLane="0to4_0" arrivalPos="41.95" arrivalSpeed="13.15" duration="11.00" routeLength="92.84" waitSteps="0" timeLoss="4.01" rerouteNo="0" devices="tripinfo_p3to4_20" vType="CarB" vaporized=""/>
    <tripinfo id="p4to1_15" depart="15.00" departLane="4to0_1" departPos="5.10" departSpeed="0.00" departDelay="0.00" arrival="31.00" arrivalLane="0to1_0" arrivalPos="41.95" arrivalSpeed="11.18" duration="16.00" routeLength="85.22" waitSteps="0" timeLoss="9.35" rerouteNo="0" devices="tripinfo_p4to1_15" vType="CarC" vaporized=""/>
    <tripinfo id="p3to4_23" depart="24.00" departLane="3to0_0" departPos="7.60" departSpeed="0.00" departDelay="0.00" arrival="35.00" arrivalLane="0to4_1" arrivalPos="41.95" arrivalSpeed="13.88" duration="11.00" routeLength="92.84" waitSteps="0" timeLoss="4.07" rerouteNo="0" devices="tripinfo_p3to4_23" vType="CarB" vaporized=""/>
    <tripinfo id="p4to1_17" depart="16.00" departLane="4to0_0" departPos="5.10" departSpeed="0.00" departDelay="0.00" arrival="36.00" arrivalLane="0to1_0" arrivalPos="41.95" arrivalSpeed="10.74" duration="20.00" routeLength="85.22" waitSteps="3" timeLoss="13.54" rerouteNo="0" devices="tripinfo_p4to1_17" vType="CarC" vaporized=""/>
    <tripinfo id="p4to3_22" depart="22.00" departLane="4to0_1" departPos="7.60" departSpeed="0.00" departDelay="0.00" arrival="39.00" arrivalLane="0to3_0" arrivalPos="41.95" arrivalSpeed="9.56" duration="17.00" routeLength="92.84" waitSteps="0" timeLoss="10.13" rerouteNo="0" devices="tripinfo_p4to3_22" vType="CarD" vaporized=""/>
    <tripinfo id="p3to2_27" depart="31.00" departLane="3to0_0" departPos="5.10" departSpeed="0.00" departDelay="0.00" arrival="40.00" arrivalLane="0to2_0" arrivalPos="41.95" arrivalSpeed="13.31" duration="9.00" routeLength="85.22" waitSteps="0" timeLoss="2.32" rerouteNo="0" devices="tripinfo_p3to2_27" vType="CarA" vaporized=""/>
    <tripinfo id="p4to3_24" depart="26.00" departLane="4to0_0" departPos="7.60" departSpeed="0.00" departDelay="1.00" arrival="43.00" arrivalLane="0to3_1" arrivalPos="41.95" arrivalSpeed="10.12" duration="17.00" routeLength="92.84" waitSteps="0" timeLoss="10.06" rerouteNo="0" devices="tripinfo_p4to3_24" vType="CarD" vaporized=""/>
    <tripinfo id="p3to4_29" depart="33.00" departLane="3to0_1" departPos="7.60" departSpeed="0.00" departDelay="0.00" arrival="44.00" arrivalLane="0to4_0" arrivalPos="41.95" arrivalSpeed="13.57" duration="11.00" routeLength="92.84" waitSteps="0" timeLoss="3.93" rerouteNo="0" devices="tripinfo_p3to4_29" vType="CarB" vaporized=""/>
    <tripinfo id="p4to1_26" depart="28.00" departLane="4to0_1" departPos="5.10" departSpeed="0.00" departDelay="0.00" arrival="48.00" arrivalLane="0to1_0" arrivalPos="41.95" arrivalSpeed="10.69" duration="20.00" routeLength="85.22" waitSteps="0" timeLoss="13.33" rerouteNo="0" devices="tripinfo_p4to1_26" vType="CarC" vaporized=""/>
    <tripinfo id="p3to2_34" depart="40.00" departLane="3to0_0" departPos="5.10" departSpeed="0.00" departDelay="0.00" arrival="49.00" arrivalLane="0to2_0" arrivalPos="41.95" arrivalSpeed="13.64" duration="9.00" routeLength="85.22" waitSteps="0" timeLoss="2.15" rerouteNo="0" devices="tripinfo_p3to2_34" vType="CarA" vaporized=""/>
    <tripinfo id="p4to3_30" depart="35.00" departLane="4to0_1" departPos="7.60" departSpeed="0.00" departDelay="0.00" arrival="53.00" arrivalLane="0to3_0" arrivalPos="41.95" arrivalSpeed="10.41" duration="18.00" routeLength="92.84" waitSteps="0" timeLoss="10.92" rerouteNo="0" devices="tripinfo_p4to3_30" vType="CarD" vaporized=""/>
    <tripinfo id="p1to2_10" depart="11.00" departLane="1to0_1" departPos="5.10" departSpeed="0.00" departDelay="0.00" arrival="60.00" arrivalLane="0to2_1" arrivalPos="41.95" arrivalSpeed="13.59" duration="49.00" routeLength="94.90" waitSteps="35" timeLoss="41.42" rerouteNo="0" devices="tripinfo_p1to2_10" vType="CarA" vaporized=""/>
    <tripinfo id="p1to3_0" depart="0.00" departLane="1to0_0" departPos="7.60" departSpeed="0.00" departDelay="0.00" arrival="61.00" arrivalLane="0to3_0" arrivalPos="41.95" arrivalSpeed="13.31" duration="61.00" routeLength="82.72" waitSteps="45" timeLoss="54.20" rerouteNo="0" devices="tripinfo_p1to3_0" vType="CarB" vaporized=""/>
    <tripinfo id="p3to2_44" depart="57.00" departLane="3to0_0" departPos="5.10" departSpeed="0.00" departDelay="0.00" arrival="66.00" arrivalLane="0to2_0" arrivalPos="41.95" arrivalSpeed="13.55" duration="9.00" routeLength="85.22" waitSteps="0" timeLoss="2.26" rerouteNo="0" devices="tripinfo_p3to2_44" vType="CarA" vaporized=""/>
    <tripinfo id="p3to4_45" depart="58.00" departLane="3to0_1" departPos="7.60" departSpeed="0.00" departDelay="0.00" arrival="69.00" arrivalLane="0to4_0" arrivalPos="41.95" arrivalSpeed="13.75" duration="11.00" routeLength="92.84" waitSteps="0" timeLoss="3.93" rerouteNo="0" devices="tripinfo_p3to4_45" vType="CarB" vaporized=""/>
    <tripinfo id="p4to1_35" depart="42.00" departLane="4to0_0" departPos="5.10" departSpeed="0.00" departDelay="0.00" arrival="69.00" arrivalLane="0to1_0" arrivalPos="41.95" arrivalSpeed="8.45" duration="27.00" routeLength="85.22" waitSteps="5" timeLoss="20.61" rerouteNo="0" devices="tripinfo_p4to1_35" vType="CarC" vaporized=""/>
    <tripinfo id="p3to4_47" depart="61.00" departLane="3to0_0" departPos="7.60" departSpeed="0.00" departDelay="0.00" arrival="72.00" arrivalLane="0to4_1" arrivalPos="41.95" arrivalSpeed="13.45" duration="11.00" routeLength="92.84" waitSteps="0" timeLoss="3.85" rerouteNo="0" devices="tripinfo_p3to4_47" vType="CarB" vaporized=""/>
    <tripinfo id="p4to3_37" depart="46.00" departLane="4to0_1" departPos="7.60" departSpeed="0.00" departDelay="0.00" arrival="72.00" arrivalLane="0to3_0" arrivalPos="41.95" arrivalSpeed="7.88" duration="26.00" routeLength="92.84" waitSteps="0" timeLoss="19.16" rerouteNo="0" devices="tripinfo_p4to3_37" vType="CarD" vaporized=""/>
    <tripinfo id="p4to1_39" depart="50.00" departLane="4to0_0" departPos="5.10" departSpeed="0.00" departDelay="0.00" arrival="72.00" arrivalLane="0to1_0" arrivalPos="41.95" arrivalSpeed="8.55" duration="22.00" routeLength="85.22" waitSteps="0" timeLoss="15.67" rerouteNo="0" devices="tripinfo_p4to1_39" vType="CarC" vaporized=""/>
    <tripinfo id="p3to4_48" depart="62.00" departLane="3to0_1" departPos="7.60" departSpeed="0.00" departDelay="0.00" arrival="73.00" arrivalLane="0to4_0" arrivalPos="41.95" arrivalSpeed="13.70" duration="11.00" routeLength="92.84" waitSteps="0" timeLoss="4.12" rerouteNo="0" devices="tripinfo_p3to4_48" vType="CarB" vaporized=""/>
    <tripinfo id="p3to2_50" depart="64.00" departLane="3to0_0" departPos="5.10" departSpeed="0.00" departDelay="1.00" arrival="73.00" arrivalLane="0to2_0" arrivalPos="41.95" arrivalSpeed="13.64" duration="9.00" routeLength="85.22" waitSteps="0" timeLoss="2.20" rerouteNo="0" devices="tripinfo_p3to2_50" vType="CarA" vaporized=""/>
    <tripinfo id="p4to3_40" depart="53.00" departLane="4to0_1" departPos="7.60" departSpeed="0.00" departDelay="2.00" arrival="75.00" arrivalLane="0to3_0" arrivalPos="41.95" arrivalSpeed="9.51" duration="22.00" routeLength="92.84" waitSteps="0" timeLoss="14.71" rerouteNo="0" devices="tripinfo_p4to3_40" vType="CarD" vaporized=""/>
    <tripinfo id="p3to4_51" depart="66.00" departLane="3to0_1" departPos="7.60" departSpeed="0.00" departDelay="2.00" arrival="77.00" arrivalLane="0to4_0" arrivalPos="41.95" arrivalSpeed="13.70" duration="11.00" routeLength="92.84" waitSteps="0" timeLoss="3.70" rerouteNo="0" devices="tripinfo_p3to4_51" vType="CarB" vaporized=""/>
    <tripinfo id="p3to4_55" depart="68.00" departLane="3to0_0" departPos="7.60" departSpeed="0.00" departDelay="0.00" arrival="79.00" arrivalLane="0to4_1" arrivalPos="41.95" arrivalSpeed="13.40" duration="11.00" routeLength="92.84" waitSteps="0" timeLoss="4.25" rerouteNo="0" devices="tripinfo_p3to4_55" vType="CarB" vaporized=""/>
    <tripinfo id="p4to1_52" depart="64.00" departLane="4to0_0" departPos="5.10" departSpeed="0.00" departDelay="0.00" arrival="80.00" arrivalLane="0to1_0" arrivalPos="41.95" arrivalSpeed="11.37" duration="16.00" routeLength="85.22" waitSteps="0" timeLoss="9.15" rerouteNo="0" devices="tripinfo_p4to1_52" vType="CarC" vaporized=""/>
    <tripinfo id="p3to4_57" depart="73.00" departLane="3to0_1" departPos="7.60" departSpeed="0.00" departDelay="0.00" arrival="84.00" arrivalLane="0to4_0" arrivalPos="41.95" arrivalSpeed="13.39" duration="11.00" routeLength="92.84" waitSteps="0" timeLoss="3.51" rerouteNo="0" devices="tripinfo_p3to4_57" vType="CarB" vaporized=""/>
    <tripinfo id="p4to3_54" depart="67.00" departLane="4to0_1" departPos="7.60" departSpeed="0.00" departDelay="0.00" arrival="84.00" arrivalLane="0to3_0" arrivalPos="41.95" arrivalSpeed="10.76" duration="17.00" routeLength="92.84" waitSteps="0" timeLoss="10.22" rerouteNo="0" devices="tripinfo_p4to3_54" vType="CarD" vaporized=""/>
    <tripinfo id="p4to3_56" depart="72.00" departLane="4to0_0" departPos="7.60" departSpeed="0.00" departDelay="0.00" arrival="88.00" arrivalLane="0to3_1" arrivalPos="41.95" arrivalSpeed="10.63" duration="16.00" routeLength="92.84" waitSteps="0" timeLoss="8.96" rerouteNo="0" devices="tripinfo_p4to3_56" vType="CarD" vaporized=""/>
    <tripinfo id="p3to4_61" depart="79.00" departLane="3to0_0" departPos="7.60" departSpeed="0.00" departDelay="0.00" arrival="90.00" arrivalLane="0to4_1" arrivalPos="41.95" arrivalSpeed="13.84" duration="11.00" routeLength="92.84" waitSteps="0" timeLoss="3.98" rerouteNo="0" devices="tripinfo_p3to4_61" vType="CarB" vaporized=""/>
    <tripinfo id="p3to2_66" depart="85.00" departLane="3to0_1" departPos="5.10" departSpeed="0.00" departDelay="0.00" arrival="94.00" arrivalLane="0to2_0" arrivalPos="41.95" arrivalSpeed="13.66" duration="9.00" routeLength="85.22" waitSteps="0" timeLoss="2.20" rerouteNo="0" devices="tripinfo_p3to2_66" vType="CarA" vaporized=""/>
    <tripinfo id="p4to1_58" depart="74.00" departLane="4to0_1" departPos="5.10" departSpeed="0.00" departDelay="0.00" arrival="95.00" arrivalLane="0to1_0" arrivalPos="41.95" arrivalSpeed="10.11" duration="21.00" routeLength="85.22" waitSteps="1" timeLoss="14.27" rerouteNo="0" devices="tripinfo_p4to1_58" vType="CarC" vaporized=""/>
    <tripinfo id="p3to2_69" depart="89.00" departLane="3to0_1" departPos="5.10" departSpeed="0.00" departDelay="0.00" arrival="98.00" arrivalLane="0to2_0" arrivalPos="41.95" arrivalSpeed="13.46" duration="9.00" routeLength="85.22" waitSteps="0" timeLoss="2.23" rerouteNo="0" devices="tripinfo_p3to2_69" vType="CarA" vaporized=""/>
    <tripinfo id="p4to3_67" depart="87.00" departLane="4to0_1" departPos="7.60" departSpeed="0.00" departDelay="0.00" arrival="105.00" arrivalLane="0to3_1" arrivalPos="41.95" arrivalSpeed="10.39" duration="18.00" routeLength="92.84" waitSteps="0" timeLoss="11.25" rerouteNo="0" devices="tripinfo_p4to3_67" vType="CarD" vaporized=""/>
    <tripinfo id="p1to3_2" depart="1.00" departLane="1to0_1" departPos="7.60" departSpeed="0.00" departDelay="0.00" arrival="111.00" arrivalLane="0to3_0" arrivalPos="41.95" arrivalSpeed="13.02" duration="110.00" routeLength="82.72" waitSteps="87" timeLoss="103.06" rerouteNo="0" devices="tripinfo_p1to3_2" vType="CarB" vaporized=""/>
    <tripinfo id="p3to2_77" depart="106.00" departLane="3to0_0" departPos="5.10" departSpeed="0.00" departDelay="0.00" arrival="115.00" arrivalLane="0to2_0" arrivalPos="41.95" arrivalSpeed="13.65" duration="9.00" routeLength="85.22" waitSteps="0" timeLoss="2.21" rerouteNo="0" devices="tripinfo_p3to2_77" vType="CarA" vaporized=""/>
    <tripinfo id="p2to4_4" depart="2.00" departLane="2to0_0" departPos="7.60" departSpeed="0.00" departDelay="0.00" arrival="115.00" arrivalLane="0to4_0" arrivalPos="41.95" arrivalSpeed="7.53" duration="113.00" routeLength="82.72" waitSteps="87" timeLoss="106.87" rerouteNo="0" devices="tripinfo_p2to4_4" vType="CarD" vaporized=""/>
    <tripinfo id="p2to1_5" depart="3.00" departLane="2to0_1" departPos="5.10" departSpeed="0.00" departDelay="0.00" arrival="116.00" arrivalLane="0to1_0" arrivalPos="41.95" arrivalSpeed="8.83" duration="113.00" routeLength="94.90" waitSteps="87" timeLoss="105.56" rerouteNo="0" devices="tripinfo_p2to1_5" vType="CarC" vaporized=""/>
    <tripinfo id="p3to2_82" depart="113.00" departLane="3to0_0" departPos="5.10" departSpeed="0.00" departDelay="0.00" arrival="122.00" arrivalLane="0to2_0" arrivalPos="41.95" arrivalSpeed="13.73" duration="9.00" routeLength="85.22" waitSteps="0" timeLoss="2.26" rerouteNo="0" devices="tripinfo_p3to2_82" vType="CarA" vaporized=""/>
    <tripinfo id="p4to3_73" depart="96.00" departLane="4to0_1" departPos="7.60" departSpeed="0.00" departDelay="0.00" arrival="122.00" arrivalLane="0to3_1" arrivalPos="41.95" arrivalSpeed="8.26" duration="26.00" routeLength="92.84" waitSteps="0" timeLoss="19.10" rerouteNo="0" devices="tripinfo_p4to3_73" vType="CarD" vaporized=""/>
    <tripinfo id="p3to2_84" depart="119.00" departLane="3to0_0" departPos="5.10" departSpeed="0.00" departDelay="0.00" arrival="128.00" arrivalLane="0to2_0" arrivalPos="41.95" arrivalSpeed="13.44" duration="9.00" routeLength="85.22" waitSteps="0" timeLoss="2.08" rerouteNo="0" devices="tripinfo_p3to2_84" vType="CarA" vaporized=""/>
    <tripinfo id="p3to2_87" depart="122.00" departLane="3to0_1" departPos="5.10" departSpeed="0.00" departDelay="0.00" arrival="131.00" arrivalLane="0to2_0" arrivalPos="41.95" arrivalSpeed="13.49" duration="9.00" routeLength="85.22" waitSteps="0" timeLoss="2.14" rerouteNo="0" devices="tripinfo_p3to2_87" vType="CarA" vaporized=""/>
    <tripinfo id="p4to1_85" depart="120.00" departLane="4to0_0" departPos="5.10" departSpeed="0.00" departDelay="0.00" arrival="135.00" arrivalLane="0to1_0" arrivalPos="41.95" arrivalSpeed="10.29" duration="15.00" routeLength="85.22" waitSteps="0" timeLoss="8.69" rerouteNo="0" devices="tripinfo_p4to1_85" vType="CarC" vaporized=""/>
    <tripinfo id="p3to4_91" depart="126.00" departLane="3to0_1" departPos="7.60" departSpeed="0.00" departDelay="0.00" arrival="137.00" arrivalLane="0to4_0" arrivalPos="41.95" arrivalSpeed="13.30" duration="11.00" routeLength="92.84" waitSteps="0" timeLoss="3.72" rerouteNo="0" devices="tripinfo_p3to4_91" vType="CarB" vaporized=""/>
    <tripinfo id="p4to3_88" depart="123.00" departLane="4to0_1" departPos="7.60" departSpeed="0.00" departDelay="0.00" arrival="140.00" arrivalLane="0to3_0" arrivalPos="41.95" arrivalSpeed="10.63" duration="17.00" routeLength="92.84" waitSteps="0" timeLoss="9.98" rerouteNo="0" devices="tripinfo_p4to3_88" vType="CarD" vaporized=""/>
    <tripinfo id="p3to4_99" depart="132.00" departLane="3to0_0" departPos="7.60" departSpeed="0.00" departDelay="0.00" arrival="143.00" arrivalLane="0to4_1" arrivalPos="41.95" arrivalSpeed="13.75" duration="11.00" routeLength="92.84" waitSteps="0" timeLoss="3.88" rerouteNo="0" devices="tripinfo_p3to4_99" vType="CarB" vaporized=""/>
    <tripinfo id="p3to4_103" depart="135.00" departLane="3to0_1" departPos="7.60" departSpeed="0.00" departDelay="0.00" arrival="146.00" arrivalLane="0to4_0" arrivalPos="41.95" arrivalSpeed="13.70" duration="11.00" routeLength="92.84" waitSteps="0" timeLoss="3.52" rerouteNo="0" devices="tripinfo_p3to4_103" vType="CarB" vaporized=""/>
    <tripinfo id="p4to3_96" depart="129.00" departLane="4to0_0" departPos="7.60" departSpeed="0.00" departDelay="0.00" arrival="147.00" arrivalLane="0to3_1" arrivalPos="41.95" arrivalSpeed="9.59" duration="18.00" routeLength="92.84" waitSteps="0" timeLoss="11.30" rerouteNo="0" devices="tripinfo_p4to3_96" vType="CarD" vaporized=""/>
    <tripinfo id="p3to4_105" depart="136.00" departLane="3to0_0" departPos="7.60" departSpeed="0.00" departDelay="0.00" arrival="148.00" arrivalLane="0to4_1" arrivalPos="41.95" arrivalSpeed="13.41" duration="12.00" routeLength="92.84" waitSteps="0" timeLoss="4.44" rerouteNo="0" devices="tripinfo_p3to4_105" vType="CarB" vaporized=""/>
    <tripinfo id="p3to4_107" depart="140.00" departLane="3to0_0" departPos="7.60" departSpeed="0.00" departDelay="0.00" arrival="151.00" arrivalLane="0to4_1" arrivalPos="41.95" arrivalSpeed="13.54" duration="11.00" routeLength="92.84" waitSteps="0" timeLoss="3.95" rerouteNo="0" devices="tripinfo_p3to4_107" vType="CarB" vaporized=""/>
    <tripinfo id="p4to3_98" depart="133.00" departLane="4to0_1" departPos="7.60" departSpeed="0.00" departDelay="2.00" arrival="151.00" arrivalLane="0to3_0" arrivalPos="41.95" arrivalSpeed="9.91" duration="18.00" routeLength="92.84" waitSteps="0" timeLoss="11.12" rerouteNo="0" devices="tripinfo_p4to3_98" vType="CarD" vaporized=""/>
    <tripinfo id="p4to1_100" depart="135.00" departLane="4to0_0" departPos="5.10" departSpeed="0.00" departDelay="3.00" arrival="151.00" arrivalLane="0to1_0" arrivalPos="41.95" arrivalSpeed="10.69" duration="16.00" routeLength="85.22" waitSteps="0" timeLoss="9.57" rerouteNo="0" devices="tripinfo_p4to1_100" vType="CarC" vaporized=""/>
    <tripinfo id="p3to4_108" depart="141.00" departLane="3to0_1" departPos="7.60" departSpeed="0.00" departDelay="0.00" arrival="152.00" arrivalLane="0to4_0" arrivalPos="41.95" arrivalSpeed="13.19" duration="11.00" routeLength="92.84" waitSteps="0" timeLoss="3.88" rerouteNo="0" devices="tripinfo_p3to4_108" vType="CarB" vaporized=""/>
    <tripinfo id="p3to2_110" depart="144.00" departLane="3to0_0" departPos="5.10" departSpeed="0.00" departDelay="1.00" arrival="153.00" arrivalLane="0to2_0" arrivalPos="41.95" arrivalSpeed="13.84" duration="9.00" routeLength="85.22" waitSteps="0" timeLoss="2.13" rerouteNo="0" devices="tripinfo_p3to2_110" vType="CarA" vaporized=""/>
    <tripinfo id="p4to1_106" depart="138.00" departLane="4to0_1" departPos="5.10" departSpeed="0.00" departDelay="2.00" arrival="154.00" arrivalLane="0to1_0" arrivalPos="41.95" arrivalSpeed="11.13" duration="16.00" routeLength="85.22" waitSteps="0" timeLoss="9.50" rerouteNo="0" devices="tripinfo_p4to1_106" vType="CarC" vaporized=""/>
    <tripinfo id="p1to2_18" depart="17.00" departLane="1to0_1" departPos="5.10" departSpeed="0.00" departDelay="0.00" arrival="160.00" arrivalLane="0to2_1" arrivalPos="41.95" arrivalSpeed="13.80" duration="143.00" routeLength="94.90" waitSteps="123" timeLoss="135.40" rerouteNo="0" devices="tripinfo_p1to2_18" vType="CarA" vaporized=""/>
    <tripinfo id="p1to3_11" depart="14.00" departLane="1to0_1" departPos="7.60" departSpeed="0.00" departDelay="3.00" arrival="160.00" arrivalLane="0to3_0" arrivalPos="41.95" arrivalSpeed="12.59" duration="146.00" routeLength="82.72" waitSteps="127" timeLoss="139.74" rerouteNo="0" devices="tripinfo_p1to3_11" vType="CarB" vaporized=""/>
    <tripinfo id="p3to4_111" depart="145.00" departLane="3to0_1" departPos="7.60" departSpeed="0.00" departDelay="2.00" arrival="166.00" arrivalLane="0to4_0" arrivalPos="41.95" arrivalSpeed="13.51" duration="21.00" routeLength="92.84" waitSteps="6" timeLoss="14.21" rerouteNo="0" devices="tripinfo_p3to4_111" vType="CarB" vaporized=""/>
    <tripinfo id="p3to4_112" depart="147.00" departLane="3to0_0" departPos="7.60" departSpeed="0.00" departDelay="2.00" arrival="166.00" arrivalLane="0to4_1" arrivalPos="41.95" arrivalSpeed="12.99" duration="19.00" routeLength="92.84" waitSteps="4" timeLoss="12.25" rerouteNo="0" devices="tripinfo_p3to4_112" vType="CarB" vaporized=""/>
    <tripinfo id="p3to2_120" depart="154.00" departLane="3to0_0" departPos="5.10" departSpeed="0.00" departDelay="0.00" arrival="167.00" arrivalLane="0to2_0" arrivalPos="41.95" arrivalSpeed="13.58" duration="13.00" routeLength="85.22" waitSteps="0" timeLoss="5.97" rerouteNo="0" devices="tripinfo_p3to2_120" vType="CarA" vaporized=""/>
    <tripinfo id="p3to2_122" depart="155.00" departLane="3to0_1" departPos="5.10" departSpeed="0.00" departDelay="0.00" arrival="168.00" arrivalLane="0to2_0" arrivalPos="41.95" arrivalSpeed="13.42" duration="13.00" routeLength="85.22" waitSteps="0" timeLoss="6.69" rerouteNo="0" devices="tripinfo_p3to2_122" vType="CarA" vaporized=""/>
    <tripinfo id="p4to1_114" depart="146.00" departLane="4to0_1" departPos="5.10" departSpeed="0.00" departDelay="0.00" arrival="169.00" arrivalLane="0to1_0" arrivalPos="41.95" arrivalSpeed="8.03" duration="23.00" routeLength="85.22" waitSteps="2" timeLoss="16.63" rerouteNo="0" devices="tripinfo_p4to1_114" vType="CarC" vaporized=""/>
    <tripinfo id="p3to4_124" depart="157.00" departLane="3to0_0" departPos="7.60" departSpeed="0.00" departDelay="0.00" arrival="171.00" arrivalLane="0to4_0" arrivalPos="41.95" arrivalSpeed="13.36" duration="14.00" routeLength="92.84" waitSteps="1" timeLoss="6.38" rerouteNo="0" devices="tripinfo_p3to4_124" vType="CarB" vaporized=""/>
    <tripinfo id="p4to1_115" depart="147.00" departLane="4to0_1" departPos="5.10" departSpeed="0.00" departDelay="0.00" arrival="171.00" arrivalLane="0to1_0" arrivalPos="41.95" arrivalSpeed="8.36" duration="24.00" routeLength="85.22" waitSteps="0" timeLoss="17.84" rerouteNo="0" devices="tripinfo_p4to1_115" vType="CarC" vaporized=""/>
    <tripinfo id="p3to2_127" depart="164.00" departLane="3to0_0" departPos="5.10" departSpeed="0.00" departDelay="0.00" arrival="173.00" arrivalLane="0to2_0" arrivalPos="41.95" arrivalSpeed="13.82" duration="9.00" routeLength="85.22" waitSteps="0" timeLoss="2.02" rerouteNo="0" devices="tripinfo_p3to2_127" vType="CarA" vaporized=""/>
    <tripinfo id="p4to3_119" depart="151.00" departLane="4to0_0" departPos="7.60" departSpeed="0.00" departDelay="2.00" arrival="175.00" arrivalLane="0to3_1" arrivalPos="41.95" arrivalSpeed="9.78" duration="24.00" routeLength="92.84" waitSteps="1" timeLoss="16.68" rerouteNo="0" devices="tripinfo_p4to3_119" vType="CarD" vaporized=""/>
    <tripinfo id="p4to1_123" depart="155.00" departLane="4to0_1" departPos="5.10" departSpeed="0.00" departDelay="0.00" arrival="178.00" arrivalLane="0to1_0" arrivalPos="41.95" arrivalSpeed="9.40" duration="23.00" routeLength="85.22" waitSteps="0" timeLoss="16.68" rerouteNo="0" devices="tripinfo_p4to1_123" vType="CarC" vaporized=""/>
    <tripinfo id="p3to4_129" depart="171.00" departLane="3to0_0" departPos="7.60" departSpeed="0.00" departDelay="0.00" arrival="182.00" arrivalLane="0to4_1" arrivalPos="41.95" arrivalSpeed="13.84" duration="11.00" routeLength="92.84" waitSteps="0" timeLoss="4.14" rerouteNo="0" devices="tripinfo_p3to4_129" vType="CarB" vaporized=""/>
</tripinfos>
